 Gaussian 09, Revision D.01,
 Gaussian 09:  ES64L-G09RevD.01 24-Apr-2013

 --------------------
 # B3LYP/GEN OPT FREQ
 --------------------

 -----------------------------------
 BEB step 1: geom and freqs for ch3i
 -----------------------------------
 Symbolic Z-matrix:
 Charge =  0 Multiplicity = 1

 SCF Done:  E(RB3LYP) =  -6929.90857766     A.U. after   13 cycles
 SCF Done:  E(RB3LYP) =  -6929.96670556     A.U. after   13 cycles
 SCF Done:  E(RB3LYP) =  -6929.98933837     A.U. after   13 cycles
 SCF Done:  E(RB3LYP) =  -6929.99060738     A.U. after   11 cycles
 SCF Done:  E(RB3LYP) =  -6929.99083486     A.U. after   10 cycles
 SCF Done:  E(RB3LYP) =  -6929.99088966     A.U. after    8 cycles
 SCF Done:  E(RB3LYP) =  -6929.99089228     A.U. after    7 cycles
 Optimization completed.
    -- Stationary point found.
 Normal termination of Gaussian 09 at Thu Nov  6 15:51:28 2014.

 ------------------------------------------------------------------
 #N Geom=AllCheck Guess=TCheck SCRF=Check GenChk RB3LYP/ChkBas Freq
 ------------------------------------------------------------------

 Structure from the checkpoint file:  "ch3i.chk"
 -----------------------------------
 BEB step 1: geom and freqs for ch3i
 -----------------------------------
 Charge =  0 Multiplicity = 1

                         Standard orientation:
 ---------------------------------------------------------------------
 Center     Atomic      Atomic             Coordinates (Angstroms)
 Number     Number       Type             X           Y           Z
 ---------------------------------------------------------------------
      1         53           0        0.000000    0.000000    0.331497
      2          6           0        0.000000    0.000000   -1.840893
      3          1           0        0.000000    1.036089   -2.174663
      4          1           0        0.897279   -0.518044   -2.174663
      5          1           0       -0.897279   -0.518044   -2.174663
 ---------------------------------------------------------------------

 SCF Done:  E(RB3LYP) =  -6929.99089228     A.U. after    1 cycles

 The electronic state is 1-A1.
 Alpha  occ. eigenvalues -- **********-175.61272-164.38669-164.38445-164.38445
 Alpha  occ. eigenvalues --  -35.76109 -30.92819 -30.92288 -30.92288 -22.86567
 Alpha  occ. eigenvalues --  -22.86329 -22.86329 -22.85919 -22.85919 -10.22300
 Alpha  occ. eigenvalues --   -6.37125  -4.67854  -4.66418  -4.66418  -2.05422
 Alpha  occ. eigenvalues --   -2.04967  -2.04967  -2.03737  -2.03737  -0.74061
 Alpha  occ. eigenvalues --   -0.61032  -0.43989  -0.43989  -0.35146  -0.24824
 Alpha  occ. eigenvalues --   -0.24824
 Alpha virt. eigenvalues --   -0.02803   0.11124   0.14245   0.14245   0.32714
 Alpha virt. eigenvalues --    0.32714   0.34858   0.35168   0.35168   0.38354
 Alpha virt. eigenvalues --    0.42046   0.42046   0.53134   0.62842   0.62842

 Mulliken charges:
               1
     1  I   -0.044201
     2  C   -0.572646
     3  H    0.205616
     4  H    0.205616
     5  H    0.205616
 Sum of Mulliken charges =   0.00000

 Dipole moment (field-independent basis, Debye):
    X=              0.0000    Y=              0.0000    Z=             -1.6667  Tot=              1.6667
 Quadrupole moment (field-independent basis, Debye-Ang):
   XX=            -36.1205   YY=            -36.1205   ZZ=            -30.6536
   XY=              0.0000   XZ=              0.0000   YZ=              0.0000

  Exact polarizability:  27.360   0.000  27.358   0.000   0.001  48.000
 Approx polarizability:  41.976   0.000  41.976   0.000   0.000  76.755

                      1                      2                      3
                     A1                      E                      E
 Frequencies --    535.4445               904.1354               904.1354
 Red. masses --      5.3233                 1.1255                 1.1255
 Frc consts  --      0.8992                 0.5421                 0.5421
 IR Inten    --      4.0567                 8.0229                 8.0210

                      4                      5                      6
                     A1                      E                      E
 Frequencies --   1314.7209              1497.0409              1497.0411
 Red. masses --      1.1394                 1.0619                 1.0619
 Frc consts  --      1.1604                 1.4021                 1.4021
 IR Inten    --     36.7537                 6.0523                 6.0521

                      7                      8                      9
                     A1                      E                      E
 Frequencies --   3110.2136              3219.7993              3219.7998
 Red. masses --      1.0257                 1.1095                 1.1095
 Frc consts  --      5.8458                 6.7767                 6.7767
 IR Inten    --     12.0612                 1.7360                 1.7365

 - Thermochemistry -
 -------------------
 Temperature   298.150 Kelvin.  Pressure   1.00000 Atm.
 Atom     1 has atomic number 53 and mass 126.90040

 Molecular mass:   141.92388 amu.
 Principal axes and moments of inertia in atomic units:
                           1         2         3
     Eigenvalues --    11.59039 247.35922 247.35922
           X            0.00000   0.94868  -0.31623
           Y            0.00000   0.31623   0.94868
           Z            1.00000   0.00000   0.00000
 This molecule is a prolate symmetric top.
 Rotational symmetry number  3.
 Rotational temperatures (Kelvin)      7.47290     0.35015     0.35015
 Rotational constants (GHZ):         155.71016     7.29603     7.29603
 Zero-point vibrational energy      96911.5 (Joules/Mol)
                                   23.16239 (Kcal/Mol)
 Warning -- explicit consideration of   1 degrees of freedom as
           vibrations may cause significant error
 Vibrational temperatures:    770.38  1300.85  1300.85  1891.59  2153.91
          (Kelvin)           2153.91  4474.90  4632.57  4632.57

 Zero-point correction=                           0.036912 (Hartree/Particle)
 Thermal correction to Energy=                    0.040070
 Thermal correction to Enthalpy=                  0.041014
 Thermal correction to Gibbs Free Energy=         0.012190
 Sum of electronic and zero-point Energies=          -6929.953981
 Sum of electronic and thermal Energies=             -6929.950822
 Sum of electronic and thermal Enthalpies=           -6929.949878
 Sum of electronic and thermal Free Energies=        -6929.978703

                     E (Thermal)             CV                S
                      KCal/Mol        Cal/Mol-Kelvin    Cal/Mol-Kelvin
 Total                   25.144              8.415             60.667
 Electronic               0.000              0.000              0.000
 Translational            0.889              2.981             40.762
 Rotational               0.889              2.981             19.005
 Vibrational             23.367              2.453              0.899
 Vibration     1          0.890              1.172              0.575

 Optimization completed.
    -- Stationary point found.
 Normal termination of Gaussian 09 at Thu Nov  6 15:51:32 2014.
