 Gaussian 16, Revision B.01,
 Gaussian 16:  ES64L-G16RevB.01 20-Dec-2017

 -----------------------
 # b3lyp/6-31g* opt freq
 -----------------------

 ---------------------------------------
 cis-dichloroethylene geometry and freqs
 ---------------------------------------
 Symbolic Z-matrix:
 Charge =  0 Multiplicity = 1

 SCF Done:  E(RB3LYP) =  -997.759502572     A.U. after   12 cycles
 SCF Done:  E(RB3LYP) =  -997.778080990     A.U. after   11 cycles
 SCF Done:  E(RB3LYP) =  -997.778531094     A.U. after   10 cycles
 SCF Done:  E(RB3LYP) =  -997.778565807     A.U. after    8 cycles
 SCF Done:  E(RB3LYP) =  -997.778571099     A.U. after    7 cycles
 Optimization completed.
    -- Stationary point found.

 1\1\GINC-PN112695\FOpt\RB3LYP\6-31G(d)\C2H2Cl2\IRIKURA\10-Nov-2020\0\\
 # b3lyp/6-31g* opt freq\\cis-dichloroethylene geometry and freqs\\0,1\
 C,-0.0434857858,0.,0.0341842113\C,-0.0434857858,0.,1.3658157887\H,0.89
 15850957,0.,-0.5148513023\H,0.8915850957,0.,1.9148513023\Cl,-1.4543170
 926,0.,-0.9723601755\Cl,-1.4543170926,0.,2.3723601755\\Version=ES64L-G
 16RevB.01\State=1-A1\HF=-997.7785711\RMSD=8.299e-09\RMSF=1.366e-04\Dip
 ole=0.8052818,0.,0.\Quadrupole=2.674727,-1.7149113,-0.9598156,0.,0.,0.
 \PG=C02V [SGV(C2H2Cl2)]\\@

 Normal termination of Gaussian 16 at Tue Nov 10 15:20:11 2020.

 --------------------------------------------------------------------
 #N Geom=AllCheck Guess=TCheck SCRF=Check GenChk RB3LYP/6-31G(d) Freq
 --------------------------------------------------------------------

 Structure from the checkpoint file:  "cis.chk"
 ---------------------------------------
 cis-dichloroethylene geometry and freqs
 ---------------------------------------
 Charge =  0 Multiplicity = 1

                         Standard orientation:
 ---------------------------------------------------------------------
 Center     Atomic      Atomic             Coordinates (Angstroms)
 Number     Number       Type             X           Y           Z
 ---------------------------------------------------------------------
      1          6           0        0.000000    0.665816    0.960378
      2          6           0       -0.000000   -0.665816    0.960378
      3          1           0        0.000000    1.214851    1.895448
      4          1           0       -0.000000   -1.214851    1.895448
      5         17           0        0.000000    1.672360   -0.450454
      6         17           0       -0.000000   -1.672360   -0.450454
 ---------------------------------------------------------------------

 SCF Done:  E(RB3LYP) =  -997.778571099     A.U. after    1 cycles

 The electronic state is 1-A1.
 Alpha  occ. eigenvalues -- -101.56292-101.56292 -10.26595 -10.26507  -9.47931
 Alpha  occ. eigenvalues --   -9.47929  -7.24341  -7.24338  -7.23369  -7.23368
 Alpha  occ. eigenvalues --   -7.23294  -7.23292  -0.90332  -0.86111  -0.74529
 Alpha  occ. eigenvalues --   -0.58406  -0.51665  -0.46833  -0.41300  -0.39553
 Alpha  occ. eigenvalues --   -0.34687  -0.32791  -0.31816  -0.25963
 Alpha virt. eigenvalues --   -0.01465   0.00930   0.05617   0.08992   0.19039
 Alpha virt. eigenvalues --    0.29939   0.31715   0.39206   0.40406   0.42059
 Alpha virt. eigenvalues --    0.42979   0.43504   0.46262   0.47295   0.53996

 Mulliken charges:
               1
     1  C   -0.220759
     2  C   -0.220759
     3  H    0.202659
     4  H    0.202659
     5  Cl   0.018100
     6  Cl   0.018100
 Sum of Mulliken charges =  -0.00000

 Dipole moment (field-independent basis, Debye):
    X=             -0.0000    Y=              0.0000    Z=              2.0468  Tot=              2.0468
 Quadrupole moment (field-independent basis, Debye-Ang):
   XX=            -38.1798   YY=            -37.1641   ZZ=            -32.2756
   XY=             -0.0000   XZ=             -0.0000   YZ=             -0.0000

  Exact polarizability:  18.425   0.000  57.819   0.000  -0.000  41.719
 Approx polarizability:  26.002   0.000  87.517   0.000   0.000  63.111

                      1                      2                      3
                     A1                     A2                     B2
 Frequencies --    166.6623               419.8807               574.6599
 Red. masses --     26.2599                 3.9836                 9.2762
 Frc consts  --      0.4298                 0.4138                 1.8049
 IR Inten    --      0.2589                 0.0000                 6.6724

                      4                      5                      6
                     A1                     B1                     B2
 Frequencies --    711.2274               718.5175               858.2855
 Red. masses --      9.0460                 1.2302                 4.5245
 Frc consts  --      2.6960                 0.3742                 1.9637
 IR Inten    --     23.8022                56.5173                87.0157

                      7                      8                      9
                     A2                     A1                     B2
 Frequencies --    900.2561              1235.4506              1337.5460
 Red. masses --      1.2375                 1.0479                 1.2215
 Frc consts  --      0.5909                 0.9424                 1.2875
 IR Inten    --      0.0000                 0.0329                27.9541

                     10                     11                     12
                     A1                     B2                     A1
 Frequencies --   1672.3737              3223.5150              3243.5824
 Red. masses --      7.4952                 1.0850                 1.0995
 Frc consts  --     12.3510                 6.6424                 6.8158
 IR Inten    --     36.6792                11.9301                 2.7382

 - Thermochemistry -
 -------------------
 Temperature   298.150 Kelvin.  Pressure   1.00000 Atm.
 Atom     1 has atomic number  6 and mass  12.00000

 Molecular mass:    95.95336 amu.
 Principal axes and moments of inertia in atomic units:
                           1         2         3
     Eigenvalues --   154.78650 747.12124 901.90774
           X            0.00000   0.00000   1.00000
           Y            1.00000   0.00000  -0.00000
           Z           -0.00000   1.00000  -0.00000
 This molecule is an asymmetric top.
 Rotational symmetry number  2.
 Rotational temperatures (Kelvin)      0.55957     0.11593     0.09603
 Rotational constants (GHZ):          11.65955     2.41559     2.00103
 Zero-point vibrational energy      90090.5 (Joules/Mol)
                                   21.53215 (Kcal/Mol)
 Warning -- explicit consideration of   3 degrees of freedom as
           vibrations may cause significant error
 Vibrational temperatures:    239.79   604.11   826.81  1023.30  1033.79
          (Kelvin)           1234.88  1295.27  1777.54  1924.43  2406.17
                             4637.92  4666.79

 Zero-point correction=                           0.034314 (Hartree/Particle)
 Thermal correction to Energy=                    0.038583
 Thermal correction to Enthalpy=                  0.039528
 Thermal correction to Gibbs Free Energy=         0.006661
 Sum of electronic and zero-point Energies=           -997.744257
 Sum of electronic and thermal Energies=              -997.739988
 Sum of electronic and thermal Enthalpies=            -997.739044
 Sum of electronic and thermal Free Energies=         -997.771910

                     E (Thermal)             CV                S
                      KCal/Mol        Cal/Mol-Kelvin    Cal/Mol-Kelvin
 Total                   24.211             13.374             69.172
 Electronic               0.000              0.000              0.000
 Translational            0.889              2.981             39.595
 Rotational               0.889              2.981             24.770
 Vibrational             22.434              7.412              4.807
 Vibration     1          0.624              1.883              2.473
 Vibration     2          0.783              1.427              0.892
 Vibration     3          0.931              1.086              0.495

 Optimization completed.
    -- Stationary point found.

 1\1\GINC-PN112695\Freq\RB3LYP\6-31G(d)\C2H2Cl2\IRIKURA\10-Nov-2020\0\\
 #N Geom=AllCheck Guess=TCheck SCRF=Check GenChk RB3LYP/6-31G(d) Freq\\
 cis-dichloroethylene geometry and freqs\\0,1\C,-0.0434857858,0.,0.0341
 842113\C,-0.0434857858,0.,1.3658157887\H,0.8915850957,0.,-0.5148513023
 \H,0.8915850957,0.,1.9148513023\Cl,-1.4543170926,0.,-0.9723601755\Cl,-
 1.4543170926,0.,2.3723601755\\Version=ES64L-G16RevB.01\State=1-A1\HF=-
 997.7785711\RMSD=2.330e-09\RMSF=1.366e-04\ZeroPoint=0.0343137\Thermal=
 0.0385833\Dipole=0.8052822,0.,0.\DipoleDeriv=0.3897689,0.,0.7470734,0.

 Normal termination of Gaussian 16 at Tue Nov 10 15:20:26 2020.
